
Host: DESKTOP-V7E8UM6

Timers On : Sun Aug 17 12:37:50 2025
Timers Off: Sun Aug 17 12:45:16 2025

Wall Time:      446.02 seconds

                                                       Time (seconds)
Module                                       User      System        Wall        Calls

--------------------------------------------------------------------------------------

**************************************************************************************

Host: DESKTOP-V7E8UM6

Timers On : Sun Aug 17 12:45:19 2025
Timers Off: Sun Aug 17 13:13:14 2025

Wall Time:     1675.40 seconds

                                                       Time (seconds)
Module                                       User      System        Wall        Calls

--------------------------------------------------------------------------------------

**************************************************************************************

Host: DESKTOP-V7E8UM6

Timers On : Sun Aug 17 13:17:06 2025
Timers Off: Sun Aug 17 13:17:08 2025

Wall Time:        1.58 seconds

                                                       Time (seconds)
Module                                       User      System        Wall        Calls

--------------------------------------------------------------------------------------

**************************************************************************************

Host: DESKTOP-V7E8UM6

Timers On : Sun Aug 17 13:17:35 2025
Timers Off: Sun Aug 17 13:17:36 2025

Wall Time:        1.58 seconds

                                                       Time (seconds)
Module                                       User      System        Wall        Calls

--------------------------------------------------------------------------------------

**************************************************************************************

Host: DESKTOP-V7E8UM6

Timers On : Sun Aug 17 13:13:19 2025
Timers Off: Sun Aug 17 13:18:06 2025

Wall Time:      287.77 seconds

                                                       Time (seconds)
Module                                       User      System        Wall        Calls

--------------------------------------------------------------------------------------

**************************************************************************************

Host: DESKTOP-V7E8UM6

Timers On : Sun Aug 17 13:18:31 2025
Timers Off: Sun Aug 17 13:18:32 2025

Wall Time:        1.58 seconds

                                                       Time (seconds)
Module                                       User      System        Wall        Calls

--------------------------------------------------------------------------------------

**************************************************************************************

Host: DESKTOP-V7E8UM6

Timers On : Sun Aug 17 13:24:01 2025
Timers Off: Sun Aug 17 13:24:02 2025

Wall Time:        1.62 seconds

                                                       Time (seconds)
Module                                       User      System        Wall        Calls

--------------------------------------------------------------------------------------

**************************************************************************************

Host: DESKTOP-V7E8UM6

Timers On : Sun Aug 17 13:24:51 2025
Timers Off: Sun Aug 17 13:24:52 2025

Wall Time:        1.60 seconds

                                                       Time (seconds)
Module                                       User      System        Wall        Calls

--------------------------------------------------------------------------------------

**************************************************************************************

Host: DESKTOP-V7E8UM6

Timers On : Sun Aug 17 13:18:09 2025
Timers Off: Sun Aug 17 13:25:02 2025

Wall Time:      413.27 seconds

                                                       Time (seconds)
Module                                       User      System        Wall        Calls

--------------------------------------------------------------------------------------

**************************************************************************************

Host: DESKTOP-V7E8UM6

Timers On : Sun Aug 17 13:25:24 2025
Timers Off: Sun Aug 17 13:25:26 2025

Wall Time:        1.67 seconds

                                                       Time (seconds)
Module                                       User      System        Wall        Calls

--------------------------------------------------------------------------------------

**************************************************************************************

Host: DESKTOP-V7E8UM6

Timers On : Sun Aug 17 15:38:11 2025
Timers Off: Sun Aug 17 15:38:13 2025

Wall Time:        1.80 seconds

                                                       Time (seconds)
Module                                       User      System        Wall        Calls

--------------------------------------------------------------------------------------

**************************************************************************************

Host: DESKTOP-V7E8UM6

Timers On : Sun Aug 17 13:25:05 2025
Timers Off: Sun Aug 17 15:38:20 2025

Wall Time:     7994.95 seconds

                                                       Time (seconds)
Module                                       User      System        Wall        Calls
DFH: sparsity prep                  :      0.017u      0.000s      0.038w      8 calls
Libint2ERI::Libint2ERI              :      0.117u      0.183s      0.033w     40 calls
DFH: initialize()                   :      0.200u      0.017s      0.165w      8 calls
DFH: AO Construction                :      0.000u      0.000s      0.015w      8 calls
DFH: AO-Met. Contraction            :      0.000u      0.000s      0.001w      8 calls
HF: Form core H                     :      0.100u      0.083s      0.077w      8 calls
HF: Form S/X                        :      0.000u      0.067s      0.003w      8 calls
HF: Guess                           :      6.900u     14.250s      0.844w      8 calls
SAD Guess                           :      6.550u     13.517s      0.801w      8 calls
HF: Form G                          :      0.250u      0.467s      0.029w     60 calls
JK: D                               :      0.000u      0.000s      0.001w     60 calls
JK: USO2AO                          :      0.050u      0.100s      0.005w     60 calls
JK: JK                              :      0.117u      0.283s      0.017w     60 calls
DFH: compute_JK()                   :      0.117u      0.267s      0.016w     60 calls
DFH: Grabbing AOs                   :      0.000u      0.000s      0.000w     60 calls
DFH: compute_J                      :      0.017u      0.050s      0.002w     60 calls
DFH: compute_K                      :      0.050u      0.100s      0.005w     60 calls
JK: AO2USO                          :      0.000u      0.017s      0.001w     60 calls
HF: Form F                          :      0.567u      0.900s      0.059w     60 calls
HF: Form D                          :      0.033u      0.017s      0.001w     60 calls
HF: DIIS                            :      7.200u     13.533s      1.226w     52 calls
HF: Form C                          :      0.467u      0.533s      0.041w     52 calls
Grad: V T Perturb                   :      0.000u      0.133s      0.006w      4 calls
Grad: S                             :      0.033u      0.067s      0.004w      4 calls
Grad: JK                            :      3.483u      8.000s      0.473w      4 calls
JKGrad: Amn                         :      0.300u      0.550s      0.033w      4 calls
JKGrad: Awmn                        :      0.000u      0.000s      0.000w      4 calls
JKGrad: AB                          :      0.433u      1.333s      0.071w      4 calls
JKGrad: UV                          :      0.017u      0.033s      0.002w      4 calls
JKGrad: ABx                         :      0.600u      1.083s      0.068w      4 calls
JKGrad: Amnx                        :      0.900u      1.983s      0.120w      4 calls
Grad: XC                            :      0.000u      0.000s      0.000w      4 calls

--------------------------------------------------------------------------------------
DFH: sparsity prep                  :      0.017u      0.000s      0.038w      8 calls
| Libint2ERI::Libint2ERI            :      0.000u      0.000s      0.015w      8 calls
DFH: initialize()                   :      0.200u      0.017s      0.165w      8 calls
| Libint2ERI::Libint2ERI            :      0.000u      0.000s      0.006w     16 calls
| DFH: AO Construction              :      0.000u      0.000s      0.015w      8 calls
| DFH: AO-Met. Contraction          :      0.000u      0.000s      0.001w      8 calls
HF: Form core H                     :      0.100u      0.083s      0.077w      8 calls
HF: Form S/X                        :      0.000u      0.067s      0.003w      8 calls
HF: Guess                           :      6.900u     14.250s      0.844w      8 calls
| SAD Guess                         :      6.550u     13.517s      0.801w      8 calls
HF: Form G                          :      0.250u      0.467s      0.029w     60 calls
| JK: D                             :      0.000u      0.000s      0.001w     60 calls
| JK: USO2AO                        :      0.050u      0.100s      0.005w     60 calls
| JK: JK                            :      0.117u      0.283s      0.017w     60 calls
| | DFH: compute_JK()               :      0.117u      0.267s      0.016w     60 calls
| | | DFH: Grabbing AOs             :      0.000u      0.000s      0.000w     60 calls
| | | DFH: compute_J                :      0.017u      0.050s      0.002w     60 calls
| | | DFH: compute_K                :      0.050u      0.100s      0.005w     60 calls
| JK: AO2USO                        :      0.000u      0.017s      0.001w     60 calls
HF: Form F                          :      0.567u      0.900s      0.059w     60 calls
HF: Form D                          :      0.033u      0.017s      0.001w     60 calls
HF: DIIS                            :      7.200u     13.533s      1.226w     52 calls
HF: Form C                          :      0.467u      0.533s      0.041w     52 calls
Grad: V T Perturb                   :      0.000u      0.133s      0.006w      4 calls
Grad: S                             :      0.033u      0.067s      0.004w      4 calls
Grad: JK                            :      3.483u      8.000s      0.473w      4 calls
| JKGrad: Amn                       :      0.300u      0.550s      0.033w      4 calls
| | Libint2ERI::Libint2ERI          :      0.000u      0.067s      0.003w      4 calls
| JKGrad: Awmn                      :      0.000u      0.000s      0.000w      4 calls
| JKGrad: AB                        :      0.433u      1.333s      0.071w      4 calls
| | Libint2ERI::Libint2ERI          :      0.017u      0.000s      0.001w      4 calls
| JKGrad: UV                        :      0.017u      0.033s      0.002w      4 calls
| JKGrad: ABx                       :      0.600u      1.083s      0.068w      4 calls
| | Libint2ERI::Libint2ERI          :      0.033u      0.017s      0.001w      4 calls
| JKGrad: Amnx                      :      0.900u      1.983s      0.120w      4 calls
| | Libint2ERI::Libint2ERI          :      0.067u      0.100s      0.006w      4 calls
Grad: XC                            :      0.000u      0.000s      0.000w      4 calls

**************************************************************************************

Host: DESKTOP-V7E8UM6

Timers On : Sun Aug 17 15:38:23 2025
Timers Off: Sun Aug 17 15:38:38 2025

Wall Time:       15.30 seconds

                                                       Time (seconds)
Module                                       User      System        Wall        Calls

--------------------------------------------------------------------------------------

**************************************************************************************

Host: DESKTOP-V7E8UM6

Timers On : Sun Aug 17 15:43:17 2025
Timers Off: Sun Aug 17 15:43:16 2025

Wall Time:       -0.80 seconds

                                                       Time (seconds)
Module                                       User      System        Wall        Calls

--------------------------------------------------------------------------------------

**************************************************************************************

Host: DESKTOP-V7E8UM6

Timers On : Sun Aug 17 15:38:48 2025
Timers Off: Sun Aug 17 15:49:41 2025

Wall Time:      653.01 seconds

                                                       Time (seconds)
Module                                       User      System        Wall        Calls
DFH: sparsity prep                  :      0.033u      0.000s      0.020w      4 calls
Libint2ERI::Libint2ERI              :      0.133u      0.133s      0.023w     20 calls
DFH: initialize()                   :      0.083u      0.000s      0.065w      4 calls
DFH: AO Construction                :      0.000u      0.000s      0.005w      4 calls
DFH: AO-Met. Contraction            :      0.000u      0.000s      0.001w      4 calls
HF: Form core H                     :      0.067u      0.033s      0.047w      4 calls
HF: Form S/X                        :      0.000u      0.017s      0.001w      4 calls
HF: Guess                           :      2.700u      5.467s      0.336w      4 calls
SAD Guess                           :      2.550u      5.133s      0.316w      4 calls
HF: Form G                          :      0.133u      0.183s      0.012w     30 calls
JK: D                               :      0.017u      0.000s      0.001w     30 calls
JK: USO2AO                          :      0.000u      0.000s      0.001w     30 calls
JK: JK                              :      0.117u      0.167s      0.008w     30 calls
DFH: compute_JK()                   :      0.117u      0.167s      0.007w     30 calls
DFH: Grabbing AOs                   :      0.000u      0.000s      0.000w     30 calls
DFH: compute_J                      :      0.033u      0.000s      0.001w     30 calls
DFH: compute_K                      :      0.000u      0.017s      0.002w     30 calls
JK: AO2USO                          :      0.000u      0.017s      0.001w     30 calls
HF: Form F                          :      0.233u      0.333s      0.023w     30 calls
HF: Form D                          :      0.017u      0.000s      0.001w     30 calls
HF: DIIS                            :      3.850u      8.767s      0.679w     26 calls
HF: Form C                          :      0.233u      0.233s      0.018w     26 calls
Grad: V T Perturb                   :      0.000u      0.000s      0.001w      2 calls
Grad: S                             :      0.033u      0.017s      0.002w      2 calls
Grad: JK                            :      1.867u      3.400s      0.223w      2 calls
JKGrad: Amn                         :      0.100u      0.383s      0.021w      2 calls
JKGrad: Awmn                        :      0.000u      0.000s      0.000w      2 calls
JKGrad: AB                          :      0.317u      0.533s      0.035w      2 calls
JKGrad: UV                          :      0.000u      0.000s      0.001w      2 calls
JKGrad: ABx                         :      0.200u      0.183s      0.015w      2 calls
JKGrad: Amnx                        :      0.367u      0.367s      0.030w      2 calls
Grad: XC                            :      0.000u      0.000s      0.000w      2 calls

--------------------------------------------------------------------------------------
DFH: sparsity prep                  :      0.033u      0.000s      0.020w      4 calls
| Libint2ERI::Libint2ERI            :      0.017u      0.000s      0.008w      4 calls
DFH: initialize()                   :      0.083u      0.000s      0.065w      4 calls
| Libint2ERI::Libint2ERI            :      0.000u      0.000s      0.004w      8 calls
| DFH: AO Construction              :      0.000u      0.000s      0.005w      4 calls
| DFH: AO-Met. Contraction          :      0.000u      0.000s      0.001w      4 calls
HF: Form core H                     :      0.067u      0.033s      0.047w      4 calls
HF: Form S/X                        :      0.000u      0.017s      0.001w      4 calls
HF: Guess                           :      2.700u      5.467s      0.336w      4 calls
| SAD Guess                         :      2.550u      5.133s      0.316w      4 calls
HF: Form G                          :      0.133u      0.183s      0.012w     30 calls
| JK: D                             :      0.017u      0.000s      0.001w     30 calls
| JK: USO2AO                        :      0.000u      0.000s      0.001w     30 calls
| JK: JK                            :      0.117u      0.167s      0.008w     30 calls
| | DFH: compute_JK()               :      0.117u      0.167s      0.007w     30 calls
| | | DFH: Grabbing AOs             :      0.000u      0.000s      0.000w     30 calls
| | | DFH: compute_J                :      0.033u      0.000s      0.001w     30 calls
| | | DFH: compute_K                :      0.000u      0.017s      0.002w     30 calls
| JK: AO2USO                        :      0.000u      0.017s      0.001w     30 calls
HF: Form F                          :      0.233u      0.333s      0.023w     30 calls
HF: Form D                          :      0.017u      0.000s      0.001w     30 calls
HF: DIIS                            :      3.850u      8.767s      0.679w     26 calls
HF: Form C                          :      0.233u      0.233s      0.018w     26 calls
Grad: V T Perturb                   :      0.000u      0.000s      0.001w      2 calls
Grad: S                             :      0.033u      0.017s      0.002w      2 calls
Grad: JK                            :      1.867u      3.400s      0.223w      2 calls
| JKGrad: Amn                       :      0.100u      0.383s      0.021w      2 calls
| | Libint2ERI::Libint2ERI          :      0.017u      0.050s      0.003w      2 calls
| JKGrad: Awmn                      :      0.000u      0.000s      0.000w      2 calls
| JKGrad: AB                        :      0.317u      0.533s      0.035w      2 calls
| | Libint2ERI::Libint2ERI          :      0.017u      0.000s      0.001w      2 calls
| JKGrad: UV                        :      0.000u      0.000s      0.001w      2 calls
| JKGrad: ABx                       :      0.200u      0.183s      0.015w      2 calls
| | Libint2ERI::Libint2ERI          :      0.000u      0.000s      0.000w      2 calls
| JKGrad: Amnx                      :      0.367u      0.367s      0.030w      2 calls
| | Libint2ERI::Libint2ERI          :      0.083u      0.083s      0.007w      2 calls
Grad: XC                            :      0.000u      0.000s      0.000w      2 calls

**************************************************************************************

Host: DESKTOP-V7E8UM6

Timers On : Sun Aug 17 15:49:44 2025
Timers Off: Sun Aug 17 15:54:05 2025

Wall Time:      260.76 seconds

                                                       Time (seconds)
Module                                       User      System        Wall        Calls

--------------------------------------------------------------------------------------

**************************************************************************************

Host: DESKTOP-V7E8UM6

Timers On : Sun Aug 17 16:05:52 2025
Timers Off: Sun Aug 17 16:13:45 2025

Wall Time:      472.62 seconds

                                                       Time (seconds)
Module                                       User      System        Wall        Calls

--------------------------------------------------------------------------------------

**************************************************************************************

Host: DESKTOP-V7E8UM6

Timers On : Sun Aug 17 17:23:55 2025
Timers Off: Sun Aug 17 17:24:05 2025

Wall Time:       10.02 seconds

                                                       Time (seconds)
Module                                       User      System        Wall        Calls

--------------------------------------------------------------------------------------

**************************************************************************************

Host: DESKTOP-V7E8UM6

Timers On : Sun Aug 17 17:25:13 2025
Timers Off: Sun Aug 17 17:26:54 2025

Wall Time:      101.22 seconds

                                                       Time (seconds)
Module                                       User      System        Wall        Calls

--------------------------------------------------------------------------------------

**************************************************************************************

Host: DESKTOP-V7E8UM6

Timers On : Sun Aug 17 21:09:16 2025
Timers Off: Sun Aug 17 22:37:01 2025

Wall Time:     5264.50 seconds

                                                       Time (seconds)
Module                                       User      System        Wall        Calls

--------------------------------------------------------------------------------------

**************************************************************************************

Host: DESKTOP-V7E8UM6

Timers On : Sun Aug 17 22:37:04 2025
Timers Off: Sun Aug 17 22:47:33 2025

Wall Time:      629.88 seconds

                                                       Time (seconds)
Module                                       User      System        Wall        Calls

--------------------------------------------------------------------------------------

**************************************************************************************

Host: DESKTOP-V7E8UM6

Timers On : Sun Aug 17 22:47:36 2025
Timers Off: Sun Aug 17 22:48:20 2025

Wall Time:       43.94 seconds

                                                       Time (seconds)
Module                                       User      System        Wall        Calls

--------------------------------------------------------------------------------------

**************************************************************************************

Host: DESKTOP-V7E8UM6

Timers On : Sun Aug 17 22:55:40 2025
Timers Off: Sun Aug 17 22:56:49 2025

Wall Time:       68.78 seconds

                                                       Time (seconds)
Module                                       User      System        Wall        Calls

--------------------------------------------------------------------------------------

**************************************************************************************

Host: DESKTOP-V7E8UM6

Timers On : Sun Aug 17 22:56:52 2025
Timers Off: Sun Aug 17 22:57:24 2025

Wall Time:       32.59 seconds

                                                       Time (seconds)
Module                                       User      System        Wall        Calls

--------------------------------------------------------------------------------------

**************************************************************************************

Host: DESKTOP-V7E8UM6

Timers On : Sun Aug 17 23:02:56 2025
Timers Off: Sun Aug 17 23:04:00 2025

Wall Time:       64.49 seconds

                                                       Time (seconds)
Module                                       User      System        Wall        Calls
DFH: sparsity prep                  :      0.217u      0.117s      0.162w     42 calls
Libint2ERI::Libint2ERI              :      0.650u      1.383s      0.156w    210 calls
DFH: initialize()                   :      1.467u      0.100s      0.922w     42 calls
DFH: AO Construction                :      0.217u      0.017s      0.104w     42 calls
DFH: AO-Met. Contraction            :      0.033u      0.000s      0.023w     42 calls
HF: Form core H                     :      1.183u      2.017s      0.435w     42 calls
HF: Form S/X                        :      0.267u      0.633s      0.035w     42 calls
HF: Guess                           :     42.633u     83.400s      5.245w     42 calls
SAD Guess                           :     40.383u     79.233s      5.009w     42 calls
HF: Form G                          :      1.067u      1.967s      0.123w    252 calls
JK: D                               :      0.083u      0.083s      0.006w    252 calls
JK: USO2AO                          :      0.067u      0.117s      0.009w    252 calls
JK: JK                              :      0.783u      1.250s      0.087w    252 calls
DFH: compute_JK()                   :      0.783u      1.150s      0.084w    252 calls
DFH: Grabbing AOs                   :      0.000u      0.017s      0.001w    252 calls
DFH: compute_J                      :      0.150u      0.333s      0.019w    252 calls
DFH: compute_K                      :      0.283u      0.417s      0.030w    252 calls
JK: AO2USO                          :      0.033u      0.100s      0.005w    252 calls
HF: Form F                          :      2.833u      5.800s      0.306w    252 calls
HF: Form D                          :      0.067u      0.083s      0.005w    252 calls
HF: DIIS                            :     26.167u     53.450s      3.125w    210 calls
HF: Form C                          :      1.533u      2.650s      0.152w    210 calls
Grad: V T Perturb                   :      0.183u      0.367s      0.018w     21 calls
Grad: S                             :      0.217u      0.450s      0.028w     21 calls
Grad: JK                            :     18.900u     39.083s      2.173w     21 calls
JKGrad: Amn                         :      2.283u      4.883s      0.264w     21 calls
JKGrad: Awmn                        :      0.000u      0.000s      0.000w     21 calls
JKGrad: AB                          :      4.900u     10.083s      0.550w     21 calls
JKGrad: UV                          :      0.150u      0.267s      0.014w     21 calls
JKGrad: ABx                         :      1.983u      3.750s      0.213w     21 calls
JKGrad: Amnx                        :      3.500u      6.517s      0.371w     21 calls
Grad: XC                            :      0.000u      0.000s      0.000w     21 calls

--------------------------------------------------------------------------------------
DFH: sparsity prep                  :      0.217u      0.117s      0.162w     42 calls
| Libint2ERI::Libint2ERI            :      0.050u      0.050s      0.048w     42 calls
DFH: initialize()                   :      1.467u      0.100s      0.922w     42 calls
| Libint2ERI::Libint2ERI            :      0.033u      0.000s      0.038w     84 calls
| DFH: AO Construction              :      0.217u      0.017s      0.104w     42 calls
| DFH: AO-Met. Contraction          :      0.033u      0.000s      0.023w     42 calls
HF: Form core H                     :      1.183u      2.017s      0.435w     42 calls
HF: Form S/X                        :      0.267u      0.633s      0.035w     42 calls
HF: Guess                           :     42.633u     83.400s      5.245w     42 calls
| SAD Guess                         :     40.383u     79.233s      5.009w     42 calls
HF: Form G                          :      1.067u      1.967s      0.123w    252 calls
| JK: D                             :      0.083u      0.083s      0.006w    252 calls
| JK: USO2AO                        :      0.067u      0.117s      0.009w    252 calls
| JK: JK                            :      0.783u      1.250s      0.087w    252 calls
| | DFH: compute_JK()               :      0.783u      1.150s      0.084w    252 calls
| | | DFH: Grabbing AOs             :      0.000u      0.017s      0.001w    252 calls
| | | DFH: compute_J                :      0.150u      0.333s      0.019w    252 calls
| | | DFH: compute_K                :      0.283u      0.417s      0.030w    252 calls
| JK: AO2USO                        :      0.033u      0.100s      0.005w    252 calls
HF: Form F                          :      2.833u      5.800s      0.306w    252 calls
HF: Form D                          :      0.067u      0.083s      0.005w    252 calls
HF: DIIS                            :     26.167u     53.450s      3.125w    210 calls
HF: Form C                          :      1.533u      2.650s      0.152w    210 calls
Grad: V T Perturb                   :      0.183u      0.367s      0.018w     21 calls
Grad: S                             :      0.217u      0.450s      0.028w     21 calls
Grad: JK                            :     18.900u     39.083s      2.173w     21 calls
| JKGrad: Amn                       :      2.283u      4.883s      0.264w     21 calls
| | Libint2ERI::Libint2ERI          :      0.150u      0.550s      0.027w     21 calls
| JKGrad: Awmn                      :      0.000u      0.000s      0.000w     21 calls
| JKGrad: AB                        :      4.900u     10.083s      0.550w     21 calls
| | Libint2ERI::Libint2ERI          :      0.067u      0.067s      0.006w     21 calls
| JKGrad: UV                        :      0.150u      0.267s      0.014w     21 calls
| JKGrad: ABx                       :      1.983u      3.750s      0.213w     21 calls
| | Libint2ERI::Libint2ERI          :      0.067u      0.100s      0.006w     21 calls
| JKGrad: Amnx                      :      3.500u      6.517s      0.371w     21 calls
| | Libint2ERI::Libint2ERI          :      0.283u      0.617s      0.032w     21 calls
Grad: XC                            :      0.000u      0.000s      0.000w     21 calls

**************************************************************************************

Host: DESKTOP-V7E8UM6

Timers On : Sun Aug 17 23:18:24 2025
Timers Off: Sun Aug 17 23:27:40 2025

Wall Time:      555.72 seconds

                                                       Time (seconds)
Module                                       User      System        Wall        Calls
DFH: sparsity prep                  :      0.117u      0.100s      0.127w     42 calls
Libint2ERI::Libint2ERI              :      1.000u      1.517s      0.135w    210 calls
DFH: initialize()                   :      0.983u      0.050s      0.603w     42 calls
DFH: AO Construction                :      0.100u      0.017s      0.044w     42 calls
DFH: AO-Met. Contraction            :      0.000u      0.000s      0.005w     42 calls
HF: Form core H                     :      1.283u      1.617s      0.388w     42 calls
HF: Form S/X                        :      0.350u      1.000s      0.053w     42 calls
HF: Guess                           :     59.200u    116.217s      6.951w     42 calls
SAD Guess                           :     55.867u    110.000s      6.595w     42 calls
HF: Form G                          :      1.883u      3.317s      0.179w    315 calls
JK: D                               :      0.083u      0.283s      0.021w    315 calls
JK: USO2AO                          :      0.117u      0.300s      0.016w    315 calls
JK: JK                              :      1.167u      1.700s      0.108w    315 calls
DFH: compute_JK()                   :      1.100u      1.617s      0.104w    315 calls
DFH: Grabbing AOs                   :      0.000u      0.017s      0.001w    315 calls
DFH: compute_J                      :      0.067u      0.150s      0.011w    315 calls
DFH: compute_K                      :      0.400u      0.517s      0.036w    315 calls
JK: AO2USO                          :      0.017u      0.067s      0.006w    315 calls
HF: Form F                          :      7.033u     14.250s      0.774w    315 calls
HF: Form D                          :      0.083u      0.133s      0.009w    315 calls
HF: DIIS                            :     51.283u     99.267s      5.767w    273 calls
HF: Form C                          :      2.650u      4.967s      0.291w    273 calls
Grad: V T Perturb                   :      0.067u      0.117s      0.007w     21 calls
Grad: S                             :      0.433u      0.767s      0.041w     21 calls
Grad: JK                            :     18.783u     38.383s      2.194w     21 calls
JKGrad: Amn                         :      2.017u      4.267s      0.229w     21 calls
JKGrad: Awmn                        :      0.000u      0.000s      0.000w     21 calls
JKGrad: AB                          :      3.517u      6.967s      0.391w     21 calls
JKGrad: UV                          :      0.150u      0.300s      0.015w     21 calls
JKGrad: ABx                         :      2.233u      3.183s      0.206w     21 calls
JKGrad: Amnx                        :      2.950u      5.383s      0.309w     21 calls
Grad: XC                            :      0.000u      0.000s      0.000w     21 calls

--------------------------------------------------------------------------------------
DFH: sparsity prep                  :      0.117u      0.100s      0.127w     42 calls
| Libint2ERI::Libint2ERI            :      0.000u      0.000s      0.018w     42 calls
DFH: initialize()                   :      0.983u      0.050s      0.603w     42 calls
| Libint2ERI::Libint2ERI            :      0.083u      0.000s      0.032w     84 calls
| DFH: AO Construction              :      0.100u      0.017s      0.044w     42 calls
| DFH: AO-Met. Contraction          :      0.000u      0.000s      0.005w     42 calls
HF: Form core H                     :      1.283u      1.617s      0.388w     42 calls
HF: Form S/X                        :      0.350u      1.000s      0.053w     42 calls
HF: Guess                           :     59.200u    116.217s      6.951w     42 calls
| SAD Guess                         :     55.867u    110.000s      6.595w     42 calls
HF: Form G                          :      1.883u      3.317s      0.179w    315 calls
| JK: D                             :      0.083u      0.283s      0.021w    315 calls
| JK: USO2AO                        :      0.117u      0.300s      0.016w    315 calls
| JK: JK                            :      1.167u      1.700s      0.108w    315 calls
| | DFH: compute_JK()               :      1.100u      1.617s      0.104w    315 calls
| | | DFH: Grabbing AOs             :      0.000u      0.017s      0.001w    315 calls
| | | DFH: compute_J                :      0.067u      0.150s      0.011w    315 calls
| | | DFH: compute_K                :      0.400u      0.517s      0.036w    315 calls
| JK: AO2USO                        :      0.017u      0.067s      0.006w    315 calls
HF: Form F                          :      7.033u     14.250s      0.774w    315 calls
HF: Form D                          :      0.083u      0.133s      0.009w    315 calls
HF: DIIS                            :     51.283u     99.267s      5.767w    273 calls
HF: Form C                          :      2.650u      4.967s      0.291w    273 calls
Grad: V T Perturb                   :      0.067u      0.117s      0.007w     21 calls
Grad: S                             :      0.433u      0.767s      0.041w     21 calls
Grad: JK                            :     18.783u     38.383s      2.194w     21 calls
| JKGrad: Amn                       :      2.017u      4.267s      0.229w     21 calls
| | Libint2ERI::Libint2ERI          :      0.317u      0.567s      0.033w     21 calls
| JKGrad: Awmn                      :      0.000u      0.000s      0.000w     21 calls
| JKGrad: AB                        :      3.517u      6.967s      0.391w     21 calls
| | Libint2ERI::Libint2ERI          :      0.100u      0.133s      0.007w     21 calls
| JKGrad: UV                        :      0.150u      0.300s      0.015w     21 calls
| JKGrad: ABx                       :      2.233u      3.183s      0.206w     21 calls
| | Libint2ERI::Libint2ERI          :      0.083u      0.167s      0.007w     21 calls
| JKGrad: Amnx                      :      2.950u      5.383s      0.309w     21 calls
| | Libint2ERI::Libint2ERI          :      0.417u      0.650s      0.038w     21 calls
Grad: XC                            :      0.000u      0.000s      0.000w     21 calls

**************************************************************************************

Host: DESKTOP-V7E8UM6

Timers On : Sun Aug 17 23:27:42 2025
Timers Off: Sun Aug 17 23:32:40 2025

Wall Time:      297.65 seconds

                                                       Time (seconds)
Module                                       User      System        Wall        Calls

--------------------------------------------------------------------------------------

**************************************************************************************

Host: DESKTOP-V7E8UM6

Timers On : Sun Aug 17 23:32:42 2025
Timers Off: Sun Aug 17 23:39:43 2025

Wall Time:      420.10 seconds

                                                       Time (seconds)
Module                                       User      System        Wall        Calls

--------------------------------------------------------------------------------------

**************************************************************************************

Host: DESKTOP-V7E8UM6

Timers On : Sun Aug 17 23:39:45 2025
Timers Off: Sun Aug 17 23:45:44 2025

Wall Time:      359.19 seconds

                                                       Time (seconds)
Module                                       User      System        Wall        Calls

--------------------------------------------------------------------------------------

**************************************************************************************

Host: DESKTOP-V7E8UM6

Timers On : Sun Aug 17 23:45:47 2025
Timers Off: Sun Aug 17 23:51:54 2025

Wall Time:      367.58 seconds

                                                       Time (seconds)
Module                                       User      System        Wall        Calls

--------------------------------------------------------------------------------------

**************************************************************************************

Host: DESKTOP-V7E8UM6

Timers On : Sun Aug 17 23:51:57 2025
Timers Off: Sun Aug 17 23:52:56 2025

Wall Time:       59.52 seconds

                                                       Time (seconds)
Module                                       User      System        Wall        Calls

--------------------------------------------------------------------------------------

**************************************************************************************

Host: DESKTOP-V7E8UM6

Timers On : Mon Aug 18 11:51:52 2025
Timers Off: Mon Aug 18 12:01:35 2025

Wall Time:      583.07 seconds

                                                       Time (seconds)
Module                                       User      System        Wall        Calls

--------------------------------------------------------------------------------------

**************************************************************************************

Host: DESKTOP-V7E8UM6

Timers On : Mon Aug 18 12:01:38 2025
Timers Off: Mon Aug 18 12:23:59 2025

Wall Time:     1341.40 seconds

                                                       Time (seconds)
Module                                       User      System        Wall        Calls

--------------------------------------------------------------------------------------

**************************************************************************************

Host: DESKTOP-V7E8UM6

Timers On : Mon Aug 18 12:24:02 2025
Timers Off: Mon Aug 18 17:05:37 2025

Wall Time:    16895.10 seconds

                                                       Time (seconds)
Module                                       User      System        Wall        Calls
DFH: sparsity prep                  :      0.200u      0.050s      0.163w     42 calls
Libint2ERI::Libint2ERI              :      0.700u      1.483s      0.165w    210 calls
DFH: initialize()                   :      1.500u      0.083s      0.943w     42 calls
DFH: AO Construction                :      0.167u      0.000s      0.108w     42 calls
DFH: AO-Met. Contraction            :      0.067u      0.017s      0.024w     42 calls
HF: Form core H                     :      0.500u      0.767s      0.377w     42 calls
HF: Form S/X                        :      0.217u      0.417s      0.021w     42 calls
HF: Guess                           :     29.733u     57.950s      3.392w     42 calls
SAD Guess                           :     28.417u     55.100s      3.226w     42 calls
HF: Form G                          :      1.283u      2.133s      0.131w    252 calls
JK: D                               :      0.017u      0.083s      0.005w    252 calls
JK: USO2AO                          :      0.083u      0.117s      0.009w    252 calls
JK: JK                              :      0.867u      1.333s      0.084w    252 calls
DFH: compute_JK()                   :      0.833u      1.267s      0.080w    252 calls
DFH: Grabbing AOs                   :      0.000u      0.000s      0.001w    252 calls
DFH: compute_J                      :      0.150u      0.200s      0.012w    252 calls
DFH: compute_K                      :      0.433u      0.550s      0.033w    252 calls
JK: AO2USO                          :      0.033u      0.133s      0.005w    252 calls
HF: Form F                          :      1.733u      3.633s      0.195w    252 calls
HF: Form D                          :      0.083u      0.117s      0.005w    252 calls
HF: DIIS                            :     22.983u     45.717s      2.880w    210 calls
HF: Form C                          :      1.517u      2.133s      0.145w    210 calls
Grad: V T Perturb                   :      0.083u      0.333s      0.017w     21 calls
Grad: S                             :      0.250u      0.533s      0.030w     21 calls
Grad: JK                            :     16.967u     36.117s      2.088w     21 calls
JKGrad: Amn                         :      1.833u      4.483s      0.241w     21 calls
JKGrad: Awmn                        :      0.000u      0.000s      0.000w     21 calls
JKGrad: AB                          :      4.867u      9.367s      0.550w     21 calls
JKGrad: UV                          :      0.183u      0.150s      0.016w     21 calls
JKGrad: ABx                         :      1.767u      3.350s      0.197w     21 calls
JKGrad: Amnx                        :      3.100u      6.533s      0.371w     21 calls
Grad: XC                            :      0.000u      0.000s      0.000w     21 calls

--------------------------------------------------------------------------------------
DFH: sparsity prep                  :      0.200u      0.050s      0.163w     42 calls
| Libint2ERI::Libint2ERI            :      0.067u      0.017s      0.048w     42 calls
DFH: initialize()                   :      1.500u      0.083s      0.943w     42 calls
| Libint2ERI::Libint2ERI            :      0.083u      0.000s      0.040w     84 calls
| DFH: AO Construction              :      0.167u      0.000s      0.108w     42 calls
| DFH: AO-Met. Contraction          :      0.067u      0.017s      0.024w     42 calls
HF: Form core H                     :      0.500u      0.767s      0.377w     42 calls
HF: Form S/X                        :      0.217u      0.417s      0.021w     42 calls
HF: Guess                           :     29.733u     57.950s      3.392w     42 calls
| SAD Guess                         :     28.417u     55.100s      3.226w     42 calls
HF: Form G                          :      1.283u      2.133s      0.131w    252 calls
| JK: D                             :      0.017u      0.083s      0.005w    252 calls
| JK: USO2AO                        :      0.083u      0.117s      0.009w    252 calls
| JK: JK                            :      0.867u      1.333s      0.084w    252 calls
| | DFH: compute_JK()               :      0.833u      1.267s      0.080w    252 calls
| | | DFH: Grabbing AOs             :      0.000u      0.000s      0.001w    252 calls
| | | DFH: compute_J                :      0.150u      0.200s      0.012w    252 calls
| | | DFH: compute_K                :      0.433u      0.550s      0.033w    252 calls
| JK: AO2USO                        :      0.033u      0.133s      0.005w    252 calls
HF: Form F                          :      1.733u      3.633s      0.195w    252 calls
HF: Form D                          :      0.083u      0.117s      0.005w    252 calls
HF: DIIS                            :     22.983u     45.717s      2.880w    210 calls
HF: Form C                          :      1.517u      2.133s      0.145w    210 calls
Grad: V T Perturb                   :      0.083u      0.333s      0.017w     21 calls
Grad: S                             :      0.250u      0.533s      0.030w     21 calls
Grad: JK                            :     16.967u     36.117s      2.088w     21 calls
| JKGrad: Amn                       :      1.833u      4.483s      0.241w     21 calls
| | Libint2ERI::Libint2ERI          :      0.200u      0.683s      0.035w     21 calls
| JKGrad: Awmn                      :      0.000u      0.000s      0.000w     21 calls
| JKGrad: AB                        :      4.867u      9.367s      0.550w     21 calls
| | Libint2ERI::Libint2ERI          :      0.050u      0.033s      0.006w     21 calls
| JKGrad: UV                        :      0.183u      0.150s      0.016w     21 calls
| JKGrad: ABx                       :      1.767u      3.350s      0.197w     21 calls
| | Libint2ERI::Libint2ERI          :      0.067u      0.183s      0.006w     21 calls
| JKGrad: Amnx                      :      3.100u      6.533s      0.371w     21 calls
| | Libint2ERI::Libint2ERI          :      0.233u      0.567s      0.030w     21 calls
Grad: XC                            :      0.000u      0.000s      0.000w     21 calls

**************************************************************************************

Host: DESKTOP-V7E8UM6

Timers On : Mon Aug 18 17:52:18 2025
Timers Off: Mon Aug 18 17:52:19 2025

Wall Time:        0.92 seconds

                                                       Time (seconds)
Module                                       User      System        Wall        Calls

--------------------------------------------------------------------------------------

**************************************************************************************

Host: DESKTOP-V7E8UM6

Timers On : Mon Aug 18 17:51:49 2025
Timers Off: Mon Aug 18 18:24:31 2025

Wall Time:     1962.39 seconds

                                                       Time (seconds)
Module                                       User      System        Wall        Calls
DFH: sparsity prep                  :      0.033u      0.017s      0.032w      3 calls
Libint2ERI::Libint2ERI              :      0.033u      0.100s      0.032w     17 calls
DFH: initialize()                   :      0.100u      0.000s      0.058w      3 calls
DFH: AO Construction                :      0.017u      0.000s      0.005w      3 calls
DFH: AO-Met. Contraction            :      0.000u      0.000s      0.000w      3 calls
HF: Form core H                     :      0.017u      0.083s      0.036w      3 calls
HF: Form S/X                        :      0.033u      0.000s      0.002w      3 calls
HF: Guess                           :      2.200u      3.100s      0.203w      3 calls
SAD Guess                           :      2.033u      2.983s      0.193w      3 calls
HF: Form G                          :      0.067u      0.167s      0.010w     23 calls
JK: D                               :      0.000u      0.000s      0.000w     23 calls
JK: USO2AO                          :      0.017u      0.000s      0.001w     23 calls
JK: JK                              :      0.050u      0.117s      0.007w     23 calls
DFH: compute_JK()                   :      0.050u      0.100s      0.006w     23 calls
DFH: Grabbing AOs                   :      0.000u      0.000s      0.000w     23 calls
DFH: compute_J                      :      0.017u      0.000s      0.001w     23 calls
DFH: compute_K                      :      0.033u      0.050s      0.003w     23 calls
JK: AO2USO                          :      0.000u      0.017s      0.000w     23 calls
HF: Form F                          :      0.167u      0.367s      0.019w     23 calls
HF: Form D                          :      0.017u      0.033s      0.000w     23 calls
HF: DIIS                            :      3.550u      7.200s      0.593w     20 calls
HF: Form C                          :      0.267u      0.250s      0.016w     20 calls
Grad: V T Perturb                   :      0.050u      0.033s      0.002w      2 calls
Grad: S                             :      0.017u      0.017s      0.001w      2 calls
Grad: JK                            :      2.033u      3.950s      0.239w      2 calls
JKGrad: Amn                         :      0.117u      0.267s      0.015w      2 calls
JKGrad: Awmn                        :      0.000u      0.000s      0.000w      2 calls
JKGrad: AB                          :      0.383u      0.567s      0.037w      2 calls
JKGrad: UV                          :      0.033u      0.017s      0.001w      2 calls
JKGrad: ABx                         :      0.350u      0.250s      0.023w      2 calls
JKGrad: Amnx                        :      0.333u      0.583s      0.036w      2 calls
Grad: XC                            :      0.000u      0.000s      0.000w      2 calls

--------------------------------------------------------------------------------------
DFH: sparsity prep                  :      0.033u      0.017s      0.032w      3 calls
| Libint2ERI::Libint2ERI            :      0.033u      0.000s      0.023w      3 calls
DFH: initialize()                   :      0.100u      0.000s      0.058w      3 calls
| Libint2ERI::Libint2ERI            :      0.000u      0.000s      0.002w      6 calls
| DFH: AO Construction              :      0.017u      0.000s      0.005w      3 calls
| DFH: AO-Met. Contraction          :      0.000u      0.000s      0.000w      3 calls
HF: Form core H                     :      0.017u      0.083s      0.036w      3 calls
HF: Form S/X                        :      0.033u      0.000s      0.002w      3 calls
HF: Guess                           :      2.200u      3.100s      0.203w      3 calls
| SAD Guess                         :      2.033u      2.983s      0.193w      3 calls
HF: Form G                          :      0.067u      0.167s      0.010w     23 calls
| JK: D                             :      0.000u      0.000s      0.000w     23 calls
| JK: USO2AO                        :      0.017u      0.000s      0.001w     23 calls
| JK: JK                            :      0.050u      0.117s      0.007w     23 calls
| | DFH: compute_JK()               :      0.050u      0.100s      0.006w     23 calls
| | | DFH: Grabbing AOs             :      0.000u      0.000s      0.000w     23 calls
| | | DFH: compute_J                :      0.017u      0.000s      0.001w     23 calls
| | | DFH: compute_K                :      0.033u      0.050s      0.003w     23 calls
| JK: AO2USO                        :      0.000u      0.017s      0.000w     23 calls
HF: Form F                          :      0.167u      0.367s      0.019w     23 calls
HF: Form D                          :      0.017u      0.033s      0.000w     23 calls
HF: DIIS                            :      3.550u      7.200s      0.593w     20 calls
HF: Form C                          :      0.267u      0.250s      0.016w     20 calls
Grad: V T Perturb                   :      0.050u      0.033s      0.002w      2 calls
Grad: S                             :      0.017u      0.017s      0.001w      2 calls
Grad: JK                            :      2.033u      3.950s      0.239w      2 calls
| JKGrad: Amn                       :      0.117u      0.267s      0.015w      2 calls
| | Libint2ERI::Libint2ERI          :      0.000u      0.017s      0.001w      2 calls
| JKGrad: Awmn                      :      0.000u      0.000s      0.000w      2 calls
| JKGrad: AB                        :      0.383u      0.567s      0.037w      2 calls
| | Libint2ERI::Libint2ERI          :      0.000u      0.000s      0.001w      2 calls
| JKGrad: UV                        :      0.033u      0.017s      0.001w      2 calls
| JKGrad: ABx                       :      0.350u      0.250s      0.023w      2 calls
| | Libint2ERI::Libint2ERI          :      0.000u      0.000s      0.001w      2 calls
| JKGrad: Amnx                      :      0.333u      0.583s      0.036w      2 calls
| | Libint2ERI::Libint2ERI          :      0.000u      0.083s      0.003w      2 calls
Grad: XC                            :      0.000u      0.000s      0.000w      2 calls

**************************************************************************************

Host: DESKTOP-V7E8UM6

Timers On : Mon Aug 18 23:21:07 2025
Timers Off: Mon Aug 18 23:21:25 2025

Wall Time:       17.63 seconds

                                                       Time (seconds)
Module                                       User      System        Wall        Calls

--------------------------------------------------------------------------------------

**************************************************************************************

Host: DESKTOP-V7E8UM6

Timers On : Mon Aug 18 23:21:27 2025
Timers Off: Mon Aug 18 23:22:00 2025

Wall Time:       32.81 seconds

                                                       Time (seconds)
Module                                       User      System        Wall        Calls

--------------------------------------------------------------------------------------

**************************************************************************************

Host: DESKTOP-V7E8UM6

Timers On : Mon Aug 18 23:22:02 2025
Timers Off: Mon Aug 18 23:23:08 2025

Wall Time:       65.85 seconds

                                                       Time (seconds)
Module                                       User      System        Wall        Calls

--------------------------------------------------------------------------------------

**************************************************************************************

Host: DESKTOP-V7E8UM6

Timers On : Mon Aug 18 23:23:14 2025
Timers Off: Mon Aug 18 23:23:31 2025

Wall Time:       17.12 seconds

                                                       Time (seconds)
Module                                       User      System        Wall        Calls

--------------------------------------------------------------------------------------

**************************************************************************************

Host: DESKTOP-V7E8UM6

Timers On : Mon Aug 18 23:23:43 2025
Timers Off: Mon Aug 18 23:31:05 2025

Wall Time:      442.54 seconds

                                                       Time (seconds)
Module                                       User      System        Wall        Calls

--------------------------------------------------------------------------------------

**************************************************************************************

Host: DESKTOP-V7E8UM6

Timers On : Mon Aug 18 23:31:08 2025
Timers Off: Mon Aug 18 23:47:13 2025

Wall Time:      964.72 seconds

                                                       Time (seconds)
Module                                       User      System        Wall        Calls

--------------------------------------------------------------------------------------

**************************************************************************************

Host: DESKTOP-V7E8UM6

Timers On : Mon Aug 18 23:48:06 2025
Timers Off: Mon Aug 18 23:51:41 2025

Wall Time:      215.85 seconds

                                                       Time (seconds)
Module                                       User      System        Wall        Calls

--------------------------------------------------------------------------------------

**************************************************************************************

Host: DESKTOP-V7E8UM6

Timers On : Mon Aug 18 23:51:44 2025
Timers Off: Mon Aug 18 23:53:14 2025

Wall Time:       89.83 seconds

                                                       Time (seconds)
Module                                       User      System        Wall        Calls

--------------------------------------------------------------------------------------

**************************************************************************************

Host: DESKTOP-V7E8UM6

Timers On : Tue Aug 19 09:04:36 2025
Timers Off: Tue Aug 19 13:41:17 2025

Wall Time:    16600.59 seconds

                                                       Time (seconds)
Module                                       User      System        Wall        Calls
DFH: sparsity prep                  :      0.150u      0.100s      0.163w     42 calls
Libint2ERI::Libint2ERI              :      0.667u      1.217s      0.160w    210 calls
DFH: initialize()                   :      1.483u      0.017s      0.998w     42 calls
DFH: AO Construction                :      0.133u      0.000s      0.112w     42 calls
DFH: AO-Met. Contraction            :      0.050u      0.000s      0.026w     42 calls
HF: Form core H                     :      1.067u      2.017s      0.431w     42 calls
HF: Form S/X                        :      0.417u      0.883s      0.052w     42 calls
HF: Guess                           :     50.817u    109.517s      4.435w     42 calls
SAD Guess                           :     48.583u    105.583s      4.187w     42 calls
HF: Form G                          :      1.067u      1.900s      0.123w    252 calls
JK: D                               :      0.100u      0.133s      0.006w    252 calls
JK: USO2AO                          :      0.033u      0.150s      0.009w    252 calls
JK: JK                              :      0.767u      1.300s      0.087w    252 calls
DFH: compute_JK()                   :      0.750u      1.167s      0.084w    252 calls
DFH: Grabbing AOs                   :      0.000u      0.033s      0.001w    252 calls
DFH: compute_J                      :      0.133u      0.183s      0.015w    252 calls
DFH: compute_K                      :      0.317u      0.400s      0.036w    252 calls
JK: AO2USO                          :      0.033u      0.083s      0.004w    252 calls
HF: Form F                          :      3.717u      8.017s      0.447w    252 calls
HF: Form D                          :      0.033u      0.117s      0.005w    252 calls
HF: DIIS                            :     27.833u     62.383s      4.045w    210 calls
HF: Form C                          :      1.433u      2.217s      0.148w    210 calls
Grad: V T Perturb                   :      0.150u      0.433s      0.025w     21 calls
Grad: S                             :      0.483u      1.133s      0.062w     21 calls
Grad: JK                            :     19.817u     41.283s      2.513w     21 calls
JKGrad: Amn                         :      2.583u      4.800s      0.297w     21 calls
JKGrad: Awmn                        :      0.000u      0.000s      0.000w     21 calls
JKGrad: AB                          :      5.283u     11.100s      0.661w     21 calls
JKGrad: UV                          :      0.050u      0.150s      0.011w     21 calls
JKGrad: ABx                         :      2.100u      4.200s      0.248w     21 calls
JKGrad: Amnx                        :      3.650u      7.350s      0.444w     21 calls
Grad: XC                            :      0.000u      0.000s      0.000w     21 calls

--------------------------------------------------------------------------------------
DFH: sparsity prep                  :      0.150u      0.100s      0.163w     42 calls
| Libint2ERI::Libint2ERI            :      0.000u      0.000s      0.044w     42 calls
DFH: initialize()                   :      1.483u      0.017s      0.998w     42 calls
| Libint2ERI::Libint2ERI            :      0.067u      0.000s      0.040w     84 calls
| DFH: AO Construction              :      0.133u      0.000s      0.112w     42 calls
| DFH: AO-Met. Contraction          :      0.050u      0.000s      0.026w     42 calls
HF: Form core H                     :      1.067u      2.017s      0.431w     42 calls
HF: Form S/X                        :      0.417u      0.883s      0.052w     42 calls
HF: Guess                           :     50.817u    109.517s      4.435w     42 calls
| SAD Guess                         :     48.583u    105.583s      4.187w     42 calls
HF: Form G                          :      1.067u      1.900s      0.123w    252 calls
| JK: D                             :      0.100u      0.133s      0.006w    252 calls
| JK: USO2AO                        :      0.033u      0.150s      0.009w    252 calls
| JK: JK                            :      0.767u      1.300s      0.087w    252 calls
| | DFH: compute_JK()               :      0.750u      1.167s      0.084w    252 calls
| | | DFH: Grabbing AOs             :      0.000u      0.033s      0.001w    252 calls
| | | DFH: compute_J                :      0.133u      0.183s      0.015w    252 calls
| | | DFH: compute_K                :      0.317u      0.400s      0.036w    252 calls
| JK: AO2USO                        :      0.033u      0.083s      0.004w    252 calls
HF: Form F                          :      3.717u      8.017s      0.447w    252 calls
HF: Form D                          :      0.033u      0.117s      0.005w    252 calls
HF: DIIS                            :     27.833u     62.383s      4.045w    210 calls
HF: Form C                          :      1.433u      2.217s      0.148w    210 calls
Grad: V T Perturb                   :      0.150u      0.433s      0.025w     21 calls
Grad: S                             :      0.483u      1.133s      0.062w     21 calls
Grad: JK                            :     19.817u     41.283s      2.513w     21 calls
| JKGrad: Amn                       :      2.583u      4.800s      0.297w     21 calls
| | Libint2ERI::Libint2ERI          :      0.200u      0.350s      0.023w     21 calls
| JKGrad: Awmn                      :      0.000u      0.000s      0.000w     21 calls
| JKGrad: AB                        :      5.283u     11.100s      0.661w     21 calls
| | Libint2ERI::Libint2ERI          :      0.067u      0.067s      0.007w     21 calls
| JKGrad: UV                        :      0.050u      0.150s      0.011w     21 calls
| JKGrad: ABx                       :      2.100u      4.200s      0.248w     21 calls
| | Libint2ERI::Libint2ERI          :      0.050u      0.200s      0.009w     21 calls
| JKGrad: Amnx                      :      3.650u      7.350s      0.444w     21 calls
| | Libint2ERI::Libint2ERI          :      0.283u      0.600s      0.037w     21 calls
Grad: XC                            :      0.000u      0.000s      0.000w     21 calls

**************************************************************************************

Host: DESKTOP-V7E8UM6

Timers On : Tue Aug 19 13:45:37 2025
Timers Off: Tue Aug 19 13:45:38 2025

Wall Time:        1.64 seconds

                                                       Time (seconds)
Module                                       User      System        Wall        Calls

--------------------------------------------------------------------------------------

**************************************************************************************

Host: DESKTOP-V7E8UM6

Timers On : Tue Aug 19 13:48:37 2025
Timers Off: Tue Aug 19 13:48:39 2025

Wall Time:        1.61 seconds

                                                       Time (seconds)
Module                                       User      System        Wall        Calls

--------------------------------------------------------------------------------------

**************************************************************************************

Host: DESKTOP-V7E8UM6

Timers On : Tue Aug 19 13:44:33 2025
Timers Off: Tue Aug 19 17:20:20 2025

Wall Time:    12947.13 seconds

                                                       Time (seconds)
Module                                       User      System        Wall        Calls

--------------------------------------------------------------------------------------

**************************************************************************************

Host: DESKTOP-V7E8UM6

Timers On : Tue Aug 19 17:21:07 2025
Timers Off: Tue Aug 19 17:21:08 2025

Wall Time:        1.48 seconds

                                                       Time (seconds)
Module                                       User      System        Wall        Calls

--------------------------------------------------------------------------------------

**************************************************************************************

Host: DESKTOP-V7E8UM6

Timers On : Tue Aug 19 18:05:04 2025
Timers Off: Tue Aug 19 18:05:05 2025

Wall Time:        1.54 seconds

                                                       Time (seconds)
Module                                       User      System        Wall        Calls

--------------------------------------------------------------------------------------

**************************************************************************************

Host: DESKTOP-V7E8UM6

Timers On : Tue Aug 19 17:20:23 2025
Timers Off: Tue Aug 19 18:05:16 2025

Wall Time:     2692.87 seconds

                                                       Time (seconds)
Module                                       User      System        Wall        Calls

--------------------------------------------------------------------------------------

**************************************************************************************

Host: DESKTOP-V7E8UM6

Timers On : Tue Aug 19 18:05:59 2025
Timers Off: Tue Aug 19 18:06:01 2025

Wall Time:        1.50 seconds

                                                       Time (seconds)
Module                                       User      System        Wall        Calls

--------------------------------------------------------------------------------------

**************************************************************************************

Host: DESKTOP-V7E8UM6

Timers On : Tue Aug 19 18:05:18 2025
Timers Off: Tue Aug 19 22:49:04 2025

Wall Time:    17025.97 seconds

                                                       Time (seconds)
Module                                       User      System        Wall        Calls
DFH: sparsity prep                  :      0.000u      0.000s      0.014w      4 calls
Libint2ERI::Libint2ERI              :      0.050u      0.067s      0.011w     20 calls
DFH: initialize()                   :      0.100u      0.017s      0.069w      4 calls
DFH: AO Construction                :      0.000u      0.000s      0.004w      4 calls
DFH: AO-Met. Contraction            :      0.000u      0.017s      0.001w      4 calls
HF: Form core H                     :      0.017u      0.067s      0.043w      4 calls
HF: Form S/X                        :      0.000u      0.017s      0.001w      4 calls
HF: Guess                           :      2.067u      4.800s      0.260w      4 calls
SAD Guess                           :      2.000u      4.500s      0.246w      4 calls
HF: Form G                          :      0.050u      0.200s      0.011w     30 calls
JK: D                               :      0.000u      0.017s      0.000w     30 calls
JK: USO2AO                          :      0.000u      0.067s      0.003w     30 calls
JK: JK                              :      0.033u      0.083s      0.005w     30 calls
DFH: compute_JK()                   :      0.033u      0.083s      0.005w     30 calls
DFH: Grabbing AOs                   :      0.000u      0.000s      0.000w     30 calls
DFH: compute_J                      :      0.000u      0.017s      0.001w     30 calls
DFH: compute_K                      :      0.017u      0.033s      0.002w     30 calls
JK: AO2USO                          :      0.000u      0.000s      0.000w     30 calls
HF: Form F                          :      0.017u      0.117s      0.005w     30 calls
HF: Form D                          :      0.017u      0.000s      0.000w     30 calls
HF: DIIS                            :      3.433u      7.750s      0.539w     26 calls
HF: Form C                          :      0.267u      0.300s      0.021w     26 calls
Grad: V T Perturb                   :      0.017u      0.017s      0.001w      2 calls
Grad: S                             :      0.000u      0.000s      0.000w      2 calls
Grad: JK                            :      1.483u      3.067s      0.177w      2 calls
JKGrad: Amn                         :      0.117u      0.217s      0.014w      2 calls
JKGrad: Awmn                        :      0.000u      0.000s      0.000w      2 calls
JKGrad: AB                          :      0.250u      0.550s      0.030w      2 calls
JKGrad: UV                          :      0.000u      0.000s      0.001w      2 calls
JKGrad: ABx                         :      0.150u      0.183s      0.012w      2 calls
JKGrad: Amnx                        :      0.217u      0.250s      0.018w      2 calls
Grad: XC                            :      0.000u      0.000s      0.000w      2 calls

--------------------------------------------------------------------------------------
DFH: sparsity prep                  :      0.000u      0.000s      0.014w      4 calls
| Libint2ERI::Libint2ERI            :      0.000u      0.000s      0.002w      4 calls
DFH: initialize()                   :      0.100u      0.017s      0.069w      4 calls
| Libint2ERI::Libint2ERI            :      0.000u      0.000s      0.004w      8 calls
| DFH: AO Construction              :      0.000u      0.000s      0.004w      4 calls
| DFH: AO-Met. Contraction          :      0.000u      0.017s      0.001w      4 calls
HF: Form core H                     :      0.017u      0.067s      0.043w      4 calls
HF: Form S/X                        :      0.000u      0.017s      0.001w      4 calls
HF: Guess                           :      2.067u      4.800s      0.260w      4 calls
| SAD Guess                         :      2.000u      4.500s      0.246w      4 calls
HF: Form G                          :      0.050u      0.200s      0.011w     30 calls
| JK: D                             :      0.000u      0.017s      0.000w     30 calls
| JK: USO2AO                        :      0.000u      0.067s      0.003w     30 calls
| JK: JK                            :      0.033u      0.083s      0.005w     30 calls
| | DFH: compute_JK()               :      0.033u      0.083s      0.005w     30 calls
| | | DFH: Grabbing AOs             :      0.000u      0.000s      0.000w     30 calls
| | | DFH: compute_J                :      0.000u      0.017s      0.001w     30 calls
| | | DFH: compute_K                :      0.017u      0.033s      0.002w     30 calls
| JK: AO2USO                        :      0.000u      0.000s      0.000w     30 calls
HF: Form F                          :      0.017u      0.117s      0.005w     30 calls
HF: Form D                          :      0.017u      0.000s      0.000w     30 calls
HF: DIIS                            :      3.433u      7.750s      0.539w     26 calls
HF: Form C                          :      0.267u      0.300s      0.021w     26 calls
Grad: V T Perturb                   :      0.017u      0.017s      0.001w      2 calls
Grad: S                             :      0.000u      0.000s      0.000w      2 calls
Grad: JK                            :      1.483u      3.067s      0.177w      2 calls
| JKGrad: Amn                       :      0.117u      0.217s      0.014w      2 calls
| | Libint2ERI::Libint2ERI          :      0.017u      0.017s      0.001w      2 calls
| JKGrad: Awmn                      :      0.000u      0.000s      0.000w      2 calls
| JKGrad: AB                        :      0.250u      0.550s      0.030w      2 calls
| | Libint2ERI::Libint2ERI          :      0.000u      0.000s      0.000w      2 calls
| JKGrad: UV                        :      0.000u      0.000s      0.001w      2 calls
| JKGrad: ABx                       :      0.150u      0.183s      0.012w      2 calls
| | Libint2ERI::Libint2ERI          :      0.000u      0.017s      0.000w      2 calls
| JKGrad: Amnx                      :      0.217u      0.250s      0.018w      2 calls
| | Libint2ERI::Libint2ERI          :      0.033u      0.033s      0.003w      2 calls
Grad: XC                            :      0.000u      0.000s      0.000w      2 calls

**************************************************************************************

Host: DESKTOP-V7E8UM6

Timers On : Tue Aug 19 22:50:00 2025
Timers Off: Tue Aug 19 23:10:05 2025

Wall Time:     1204.83 seconds

                                                       Time (seconds)
Module                                       User      System        Wall        Calls

--------------------------------------------------------------------------------------

**************************************************************************************

Host: DESKTOP-V7E8UM6

Timers On : Tue Aug 19 23:10:57 2025
Timers Off: Tue Aug 19 23:10:58 2025

Wall Time:        1.46 seconds

                                                       Time (seconds)
Module                                       User      System        Wall        Calls

--------------------------------------------------------------------------------------

**************************************************************************************

Host: DESKTOP-V7E8UM6

Timers On : Tue Aug 19 23:10:08 2025
Timers Off: Tue Aug 19 23:11:25 2025

Wall Time:       77.36 seconds

                                                       Time (seconds)
Module                                       User      System        Wall        Calls
DFH: sparsity prep                  :      0.017u      0.017s      0.012w      4 calls
Libint2ERI::Libint2ERI              :      0.050u      0.083s      0.008w     20 calls
DFH: initialize()                   :      0.100u      0.000s      0.055w      4 calls
DFH: AO Construction                :      0.000u      0.000s      0.004w      4 calls
DFH: AO-Met. Contraction            :      0.000u      0.000s      0.001w      4 calls
HF: Form core H                     :      0.050u      0.150s      0.047w      4 calls
HF: Form S/X                        :      0.017u      0.000s      0.001w      4 calls
HF: Guess                           :      2.217u      4.700s      0.253w      4 calls
SAD Guess                           :      2.017u      4.567s      0.241w      4 calls
HF: Form G                          :      0.167u      0.150s      0.011w     30 calls
JK: D                               :      0.017u      0.000s      0.000w     30 calls
JK: USO2AO                          :      0.000u      0.000s      0.001w     30 calls
JK: JK                              :      0.117u      0.117s      0.007w     30 calls
DFH: compute_JK()                   :      0.117u      0.117s      0.007w     30 calls
DFH: Grabbing AOs                   :      0.000u      0.000s      0.000w     30 calls
DFH: compute_J                      :      0.000u      0.000s      0.001w     30 calls
DFH: compute_K                      :      0.033u      0.033s      0.003w     30 calls
JK: AO2USO                          :      0.000u      0.017s      0.001w     30 calls
HF: Form F                          :      0.133u      0.267s      0.016w     30 calls
HF: Form D                          :      0.017u      0.017s      0.000w     30 calls
HF: DIIS                            :      4.350u      7.800s      0.453w     26 calls
HF: Form C                          :      0.167u      0.133s      0.017w     26 calls
Grad: V T Perturb                   :      0.017u      0.000s      0.001w      2 calls
Grad: S                             :      0.000u      0.000s      0.000w      2 calls
Grad: JK                            :      1.650u      3.050s      0.178w      2 calls
JKGrad: Amn                         :      0.150u      0.283s      0.015w      2 calls
JKGrad: Awmn                        :      0.000u      0.000s      0.000w      2 calls
JKGrad: AB                          :      0.350u      0.350s      0.027w      2 calls
JKGrad: UV                          :      0.017u      0.017s      0.001w      2 calls
JKGrad: ABx                         :      0.083u      0.233s      0.012w      2 calls
JKGrad: Amnx                        :      0.183u      0.417s      0.022w      2 calls
Grad: XC                            :      0.000u      0.000s      0.000w      2 calls

--------------------------------------------------------------------------------------
DFH: sparsity prep                  :      0.017u      0.017s      0.012w      4 calls
| Libint2ERI::Libint2ERI            :      0.000u      0.000s      0.002w      4 calls
DFH: initialize()                   :      0.100u      0.000s      0.055w      4 calls
| Libint2ERI::Libint2ERI            :      0.000u      0.000s      0.003w      8 calls
| DFH: AO Construction              :      0.000u      0.000s      0.004w      4 calls
| DFH: AO-Met. Contraction          :      0.000u      0.000s      0.001w      4 calls
HF: Form core H                     :      0.050u      0.150s      0.047w      4 calls
HF: Form S/X                        :      0.017u      0.000s      0.001w      4 calls
HF: Guess                           :      2.217u      4.700s      0.253w      4 calls
| SAD Guess                         :      2.017u      4.567s      0.241w      4 calls
HF: Form G                          :      0.167u      0.150s      0.011w     30 calls
| JK: D                             :      0.017u      0.000s      0.000w     30 calls
| JK: USO2AO                        :      0.000u      0.000s      0.001w     30 calls
| JK: JK                            :      0.117u      0.117s      0.007w     30 calls
| | DFH: compute_JK()               :      0.117u      0.117s      0.007w     30 calls
| | | DFH: Grabbing AOs             :      0.000u      0.000s      0.000w     30 calls
| | | DFH: compute_J                :      0.000u      0.000s      0.001w     30 calls
| | | DFH: compute_K                :      0.033u      0.033s      0.003w     30 calls
| JK: AO2USO                        :      0.000u      0.017s      0.001w     30 calls
HF: Form F                          :      0.133u      0.267s      0.016w     30 calls
HF: Form D                          :      0.017u      0.017s      0.000w     30 calls
HF: DIIS                            :      4.350u      7.800s      0.453w     26 calls
HF: Form C                          :      0.167u      0.133s      0.017w     26 calls
Grad: V T Perturb                   :      0.017u      0.000s      0.001w      2 calls
Grad: S                             :      0.000u      0.000s      0.000w      2 calls
Grad: JK                            :      1.650u      3.050s      0.178w      2 calls
| JKGrad: Amn                       :      0.150u      0.283s      0.015w      2 calls
| | Libint2ERI::Libint2ERI          :      0.017u      0.033s      0.001w      2 calls
| JKGrad: Awmn                      :      0.000u      0.000s      0.000w      2 calls
| JKGrad: AB                        :      0.350u      0.350s      0.027w      2 calls
| | Libint2ERI::Libint2ERI          :      0.017u      0.000s      0.000w      2 calls
| JKGrad: UV                        :      0.017u      0.017s      0.001w      2 calls
| JKGrad: ABx                       :      0.083u      0.233s      0.012w      2 calls
| | Libint2ERI::Libint2ERI          :      0.017u      0.000s      0.000w      2 calls
| JKGrad: Amnx                      :      0.183u      0.417s      0.022w      2 calls
| | Libint2ERI::Libint2ERI          :      0.000u      0.050s      0.002w      2 calls
Grad: XC                            :      0.000u      0.000s      0.000w      2 calls

[...]

**************************************************************************************

Host: DESKTOP-V7E8UM6

Timers On : Sun Aug 24 23:24:11 2025
Timers Off: Sun Aug 24 23:55:51 2025

Wall Time:     1899.79 seconds

                                                       Time (seconds)
Module                                       User      System        Wall        Calls

--------------------------------------------------------------------------------------

**************************************************************************************

Host: DESKTOP-V7E8UM6

Timers On : Sun Aug 24 23:55:56 2025
Timers Off: Mon Aug 25 11:49:23 2025

Wall Time:    42807.88 seconds

                                                       Time (seconds)
Module                                       User      System        Wall        Calls

--------------------------------------------------------------------------------------

**************************************************************************************

Host: DESKTOP-V7E8UM6

Timers On : Mon Aug 25 15:00:47 2025
Timers Off: Mon Aug 25 15:18:32 2025

Wall Time:     1065.32 seconds

                                                       Time (seconds)
Module                                       User      System        Wall        Calls

--------------------------------------------------------------------------------------

**************************************************************************************

Host: DESKTOP-V7E8UM6

Timers On : Mon Aug 25 15:36:37 2025
Timers Off: Mon Aug 25 19:57:46 2025

Wall Time:    15669.54 seconds

                                                       Time (seconds)
Module                                       User      System        Wall        Calls

--------------------------------------------------------------------------------------

**************************************************************************************

Host: DESKTOP-V7E8UM6

Timers On : Mon Aug 25 19:57:55 2025
Timers Off: Mon Aug 25 22:43:51 2025

Wall Time:     9955.55 seconds

                                                       Time (seconds)
Module                                       User      System        Wall        Calls

--------------------------------------------------------------------------------------

**************************************************************************************

Host: DESKTOP-V7E8UM6

Timers On : Mon Aug 25 22:43:56 2025
Timers Off: Mon Aug 25 23:36:19 2025

Wall Time:     3142.67 seconds

                                                       Time (seconds)
Module                                       User      System        Wall        Calls

--------------------------------------------------------------------------------------

**************************************************************************************

Host: DESKTOP-V7E8UM6

Timers On : Mon Aug 25 23:36:26 2025
Timers Off: Mon Aug 25 23:46:07 2025

Wall Time:      580.68 seconds

                                                       Time (seconds)
Module                                       User      System        Wall        Calls

--------------------------------------------------------------------------------------

**************************************************************************************

Host: DESKTOP-V7E8UM6

Timers On : Tue Aug 26 14:10:42 2025
Timers Off: Fri Aug 29 00:36:54 2025

Wall Time:   210371.85 seconds

                                                       Time (seconds)
Module                                       User      System        Wall        Calls

--------------------------------------------------------------------------------------

**************************************************************************************

Host: DESKTOP-V7E8UM6

Timers On : Fri Aug 29 22:29:28 2025
Timers Off: Sat Aug 30 00:49:02 2025

Wall Time:     8373.79 seconds

                                                       Time (seconds)
Module                                       User      System        Wall        Calls

--------------------------------------------------------------------------------------

**************************************************************************************

Host: DESKTOP-V7E8UM6

Timers On : Sat Aug 30 13:05:38 2025
Timers Off: Sat Aug 30 23:56:04 2025

Wall Time:    39025.75 seconds

                                                       Time (seconds)
Module                                       User      System        Wall        Calls
DFH: sparsity prep                  :      0.117u      0.017s      0.091w      8 calls
Libint2ERI::Libint2ERI              :      0.250u      0.333s      0.103w     40 calls
DFH: initialize()                   :      0.283u      0.067s      0.226w      8 calls
DFH: AO Construction                :      0.033u      0.017s      0.024w      8 calls
DFH: AO-Met. Contraction            :      0.017u      0.000s      0.005w      8 calls
HF: Form core H                     :      0.367u      0.533s      0.109w      8 calls
HF: Form S/X                        :      0.067u      0.167s      0.009w      8 calls
HF: Guess                           :     10.400u     21.667s      1.249w      8 calls
SAD Guess                           :     10.000u     20.600s      1.190w      8 calls
HF: Form G                          :      0.367u      0.550s      0.039w     48 calls
JK: D                               :      0.017u      0.000s      0.001w     48 calls
JK: USO2AO                          :      0.050u      0.017s      0.002w     48 calls
JK: JK                              :      0.250u      0.483s      0.031w     48 calls
DFH: compute_JK()                   :      0.250u      0.483s      0.030w     48 calls
DFH: Grabbing AOs                   :      0.000u      0.017s      0.001w     48 calls
DFH: compute_J                      :      0.017u      0.083s      0.003w     48 calls
DFH: compute_K                      :      0.133u      0.267s      0.018w     48 calls
JK: AO2USO                          :      0.000u      0.017s      0.001w     48 calls
HF: Form F                          :      0.800u      1.767s      0.101w     48 calls
HF: Form D                          :      0.033u      0.050s      0.001w     48 calls
HF: DIIS                            :      9.333u     17.400s      1.545w     40 calls
HF: Form C                          :      0.350u      0.500s      0.033w     40 calls
Grad: V T Perturb                   :      0.067u      0.017s      0.005w      4 calls
Grad: S                             :      0.233u      0.350s      0.022w      4 calls
Grad: JK                            :      5.333u     11.067s      0.654w      4 calls
JKGrad: Amn                         :      0.450u      1.067s      0.060w      4 calls
JKGrad: Awmn                        :      0.000u      0.000s      0.000w      4 calls
JKGrad: AB                          :      0.933u      1.900s      0.111w      4 calls
JKGrad: UV                          :      0.033u      0.067s      0.003w      4 calls
JKGrad: ABx                         :      0.517u      1.083s      0.063w      4 calls
JKGrad: Amnx                        :      1.100u      2.233s      0.130w      4 calls
Grad: XC                            :      0.000u      0.000s      0.000w      4 calls

--------------------------------------------------------------------------------------
DFH: sparsity prep                  :      0.117u      0.017s      0.091w      8 calls
| Libint2ERI::Libint2ERI            :      0.100u      0.000s      0.067w      8 calls
DFH: initialize()                   :      0.283u      0.067s      0.226w      8 calls
| Libint2ERI::Libint2ERI            :      0.000u      0.000s      0.016w     16 calls
| DFH: AO Construction              :      0.033u      0.017s      0.024w      8 calls
| DFH: AO-Met. Contraction          :      0.017u      0.000s      0.005w      8 calls
HF: Form core H                     :      0.367u      0.533s      0.109w      8 calls
HF: Form S/X                        :      0.067u      0.167s      0.009w      8 calls
HF: Guess                           :     10.400u     21.667s      1.249w      8 calls
| SAD Guess                         :     10.000u     20.600s      1.190w      8 calls
HF: Form G                          :      0.367u      0.550s      0.039w     48 calls
| JK: D                             :      0.017u      0.000s      0.001w     48 calls
| JK: USO2AO                        :      0.050u      0.017s      0.002w     48 calls
| JK: JK                            :      0.250u      0.483s      0.031w     48 calls
| | DFH: compute_JK()               :      0.250u      0.483s      0.030w     48 calls
| | | DFH: Grabbing AOs             :      0.000u      0.017s      0.001w     48 calls
| | | DFH: compute_J                :      0.017u      0.083s      0.003w     48 calls
| | | DFH: compute_K                :      0.133u      0.267s      0.018w     48 calls
| JK: AO2USO                        :      0.000u      0.017s      0.001w     48 calls
HF: Form F                          :      0.800u      1.767s      0.101w     48 calls
HF: Form D                          :      0.033u      0.050s      0.001w     48 calls
HF: DIIS                            :      9.333u     17.400s      1.545w     40 calls
HF: Form C                          :      0.350u      0.500s      0.033w     40 calls
Grad: V T Perturb                   :      0.067u      0.017s      0.005w      4 calls
Grad: S                             :      0.233u      0.350s      0.022w      4 calls
Grad: JK                            :      5.333u     11.067s      0.654w      4 calls
| JKGrad: Amn                       :      0.450u      1.067s      0.060w      4 calls
| | Libint2ERI::Libint2ERI          :      0.067u      0.050s      0.005w      4 calls
| JKGrad: Awmn                      :      0.000u      0.000s      0.000w      4 calls
| JKGrad: AB                        :      0.933u      1.900s      0.111w      4 calls
| | Libint2ERI::Libint2ERI          :      0.000u      0.033s      0.001w      4 calls
| JKGrad: UV                        :      0.033u      0.067s      0.003w      4 calls
| JKGrad: ABx                       :      0.517u      1.083s      0.063w      4 calls
| | Libint2ERI::Libint2ERI          :      0.017u      0.050s      0.002w      4 calls
| JKGrad: Amnx                      :      1.100u      2.233s      0.130w      4 calls
| | Libint2ERI::Libint2ERI          :      0.067u      0.200s      0.012w      4 calls
Grad: XC                            :      0.000u      0.000s      0.000w      4 calls

**************************************************************************************

Host: DESKTOP-V7E8UM6

Timers On : Sat Aug 30 23:56:12 2025
Timers Off: Sun Aug 31 17:07:51 2025

Wall Time:    61898.57 seconds

                                                       Time (seconds)
Module                                       User      System        Wall        Calls

--------------------------------------------------------------------------------------

**************************************************************************************

Host: DESKTOP-V7E8UM6

Timers On : Sun Aug 31 18:41:01 2025
Timers Off: Mon Sep  1 09:56:27 2025

Wall Time:    54926.31 seconds

                                                       Time (seconds)
Module                                       User      System        Wall        Calls

--------------------------------------------------------------------------------------

**************************************************************************************

Host: DESKTOP-V7E8UM6

Timers On : Mon Sep  1 11:59:28 2025
Timers Off: Mon Sep  1 12:01:04 2025

Wall Time:       96.48 seconds

                                                       Time (seconds)
Module                                       User      System        Wall        Calls

--------------------------------------------------------------------------------------

**************************************************************************************

Host: DESKTOP-V7E8UM6

Timers On : Mon Sep  1 12:30:50 2025
Timers Off: Mon Sep  1 12:31:49 2025

Wall Time:       58.89 seconds

                                                       Time (seconds)
Module                                       User      System        Wall        Calls

--------------------------------------------------------------------------------------

**************************************************************************************

Host: DESKTOP-V7E8UM6

Timers On : Mon Sep  1 22:33:58 2025
Timers Off: Mon Sep  1 22:39:32 2025

Wall Time:      334.35 seconds

                                                       Time (seconds)
Module                                       User      System        Wall        Calls

--------------------------------------------------------------------------------------

**************************************************************************************

Host: DESKTOP-V7E8UM6

Timers On : Mon Sep  1 22:40:37 2025
Timers Off: Mon Sep  1 23:32:19 2025

Wall Time:     3102.76 seconds

                                                       Time (seconds)
Module                                       User      System        Wall        Calls

--------------------------------------------------------------------------------------

**************************************************************************************

Host: DESKTOP-V7E8UM6

Timers On : Tue Sep  2 08:59:29 2025
Timers Off: Tue Sep  2 09:01:14 2025

Wall Time:      104.53 seconds

                                                       Time (seconds)
Module                                       User      System        Wall        Calls
DFH: sparsity prep                  :      0.150u      0.017s      0.100w     12 calls
Libint2ERI::Libint2ERI              :      0.317u      0.350s      0.101w     60 calls
DFH: initialize()                   :      0.417u      0.000s      0.311w     12 calls
DFH: AO Construction                :      0.050u      0.000s      0.034w     12 calls
DFH: AO-Met. Contraction            :      0.000u      0.000s      0.008w     12 calls
HF: Form core H                     :      0.333u      0.433s      0.131w     12 calls
HF: Form S/X                        :      0.167u      0.300s      0.019w     12 calls
HF: Guess                           :      9.967u     21.483s      1.251w     12 calls
SAD Guess                           :      9.467u     20.400s      1.188w     12 calls
HF: Form G                          :      0.500u      0.700s      0.048w     72 calls
JK: D                               :      0.000u      0.017s      0.002w     72 calls
JK: USO2AO                          :      0.017u      0.050s      0.003w     72 calls
JK: JK                              :      0.317u      0.450s      0.028w     72 calls
DFH: compute_JK()                   :      0.317u      0.417s      0.027w     72 calls
DFH: Grabbing AOs                   :      0.017u      0.000s      0.000w     72 calls
DFH: compute_J                      :      0.083u      0.117s      0.004w     72 calls
DFH: compute_K                      :      0.117u      0.150s      0.012w     72 calls
JK: AO2USO                          :      0.017u      0.033s      0.002w     72 calls
HF: Form F                          :      0.483u      2.000s      0.099w     72 calls
HF: Form D                          :      0.017u      0.017s      0.002w     72 calls
HF: DIIS                            :     10.333u     21.650s      1.678w     60 calls
HF: Form C                          :      0.517u      0.967s      0.054w     60 calls
Grad: V T Perturb                   :      0.083u      0.117s      0.005w      6 calls
Grad: S                             :      0.117u      0.167s      0.013w      6 calls
Grad: JK                            :      6.183u     12.983s      0.777w      6 calls
JKGrad: Amn                         :      0.683u      0.900s      0.062w      6 calls
JKGrad: Awmn                        :      0.000u      0.000s      0.000w      6 calls
JKGrad: AB                          :      1.750u      3.100s      0.193w      6 calls
JKGrad: UV                          :      0.033u      0.100s      0.005w      6 calls
JKGrad: ABx                         :      0.633u      1.250s      0.074w      6 calls
JKGrad: Amnx                        :      1.100u      2.467s      0.141w      6 calls
Grad: XC                            :      0.000u      0.000s      0.000w      6 calls

--------------------------------------------------------------------------------------
DFH: sparsity prep                  :      0.150u      0.017s      0.100w     12 calls
| Libint2ERI::Libint2ERI            :      0.117u      0.017s      0.065w     12 calls
DFH: initialize()                   :      0.417u      0.000s      0.311w     12 calls
| Libint2ERI::Libint2ERI            :      0.000u      0.000s      0.012w     24 calls
| DFH: AO Construction              :      0.050u      0.000s      0.034w     12 calls
| DFH: AO-Met. Contraction          :      0.000u      0.000s      0.008w     12 calls
HF: Form core H                     :      0.333u      0.433s      0.131w     12 calls
HF: Form S/X                        :      0.167u      0.300s      0.019w     12 calls
HF: Guess                           :      9.967u     21.483s      1.251w     12 calls
| SAD Guess                         :      9.467u     20.400s      1.188w     12 calls
HF: Form G                          :      0.500u      0.700s      0.048w     72 calls
| JK: D                             :      0.000u      0.017s      0.002w     72 calls
| JK: USO2AO                        :      0.017u      0.050s      0.003w     72 calls
| JK: JK                            :      0.317u      0.450s      0.028w     72 calls
| | DFH: compute_JK()               :      0.317u      0.417s      0.027w     72 calls
| | | DFH: Grabbing AOs             :      0.017u      0.000s      0.000w     72 calls
| | | DFH: compute_J                :      0.083u      0.117s      0.004w     72 calls
| | | DFH: compute_K                :      0.117u      0.150s      0.012w     72 calls
| JK: AO2USO                        :      0.017u      0.033s      0.002w     72 calls
HF: Form F                          :      0.483u      2.000s      0.099w     72 calls
HF: Form D                          :      0.017u      0.017s      0.002w     72 calls
HF: DIIS                            :     10.333u     21.650s      1.678w     60 calls
HF: Form C                          :      0.517u      0.967s      0.054w     60 calls
Grad: V T Perturb                   :      0.083u      0.117s      0.005w      6 calls
Grad: S                             :      0.117u      0.167s      0.013w      6 calls
Grad: JK                            :      6.183u     12.983s      0.777w      6 calls
| JKGrad: Amn                       :      0.683u      0.900s      0.062w      6 calls
| | Libint2ERI::Libint2ERI          :      0.050u      0.100s      0.007w      6 calls
| JKGrad: Awmn                      :      0.000u      0.000s      0.000w      6 calls
| JKGrad: AB                        :      1.750u      3.100s      0.193w      6 calls
| | Libint2ERI::Libint2ERI          :      0.017u      0.067s      0.005w      6 calls
| JKGrad: UV                        :      0.033u      0.100s      0.005w      6 calls
| JKGrad: ABx                       :      0.633u      1.250s      0.074w      6 calls
| | Libint2ERI::Libint2ERI          :      0.017u      0.050s      0.002w      6 calls
| JKGrad: Amnx                      :      1.100u      2.467s      0.141w      6 calls
| | Libint2ERI::Libint2ERI          :      0.117u      0.117s      0.010w      6 calls
Grad: XC                            :      0.000u      0.000s      0.000w      6 calls

**************************************************************************************
